    2    2    1    1
  0.2079688E+02  0.3889087E-09  0.3889087E-09  0.3889087E-09  0.5000000E-15
   1.0000000000000000E-004
  CAR 
 diamond Si                              
      8     40      8

  0.5000000E+00  0.5000000E+00  0.5000000E+00  0.2500000E-01
    1       -4.016387   1.000000
    2       -1.343553   1.000000
    3        4.288919   1.000000
    4        4.288919   1.000000
    5        6.866316  -0.000000
    6        8.827936   0.000000
    7        8.827936   0.000000
    8       13.135026   0.000000

  0.4444444E+00  0.4444444E+00  0.4444444E+00  0.2500000E-01
    1       -4.169221   1.000000
    2       -1.115718   1.000000
    3        4.311477   1.000000
    4        4.311477   1.000000
    5        6.892096  -0.000000
    6        8.850769   0.000000
    7        8.850769   0.000000
    8       13.169330   0.000000

  0.3888889E+00  0.3888889E+00  0.3888889E+00  0.2500000E-01
    1       -4.520729   1.000000
    2       -0.542198   1.000000
    3        4.376761   1.000000
    4        4.376761   1.000000
    5        6.969187  -0.000000
    6        8.906590   0.000000
    7        8.906590   0.000000
    8       13.242239   0.000000

  0.3333333E+00  0.3333333E+00  0.3333333E+00  0.2500000E-01
    1       -4.924125   1.000000
    2        0.228021   1.000000
    3        4.484761   1.000000
    4        4.484761   1.000000
    5        7.093374  -0.000000
    6        8.967879   0.000000
    7        8.967879   0.000000
    8       13.167646   0.000000

  0.2777778E+00  0.2777778E+00  0.2777778E+00  0.2500000E-01
    1       -5.306563   1.000000
    2        1.118371   1.000000
    3        4.633226   1.000000
    4        4.633226   1.000000
    5        7.261766  -0.000000
    6        8.977386   0.000000
    7        8.977386   0.000000
    8       12.523438   0.000000

  0.2222222E+00  0.2222222E+00  0.2222222E+00  0.2500000E-01
    1       -5.637679   1.000000
    2        2.086005   1.000000
    3        4.816444   1.000000
    4        4.816444   1.000000
    5        7.462999  -0.000000
    6        8.871797   0.000000
    7        8.871797   0.000000
    8       11.586679   0.000000

  0.1666667E+00  0.1666667E+00  0.1666667E+00  0.2500000E-01
    1       -5.903214   1.000000
    2        3.100823   1.000000
    3        5.023027   1.000000
    4        5.023027   1.000000
    5        7.685595  -0.000000
    6        8.639185   0.000000
    7        8.639185   0.000000
    8       10.591931   0.000000

  0.1111111E+00  0.1111111E+00  0.1111111E+00  0.2500000E-01
    1       -6.096359   1.000000
    2        4.117461   1.000000
    3        5.229437   1.000054
    4        5.229437   1.000054
    5        7.895814  -0.000000
    6        8.348483   0.000000
    7        8.348483   0.000000
    8        9.600519   0.000000

  0.5555556E-01  0.5555556E-01  0.5555556E-01  0.2500000E-01
    1       -6.213353   1.000000
    2        5.023745   1.000000
    3        5.394619   1.029992
    4        5.394619   1.029992
    5        8.032390  -0.000000
    6        8.106695  -0.000000
    7        8.106695  -0.000000
    8        8.736833   0.000000

  0.0000000E+00  0.0000000E+00  0.0000000E+00  0.2500000E-01
    1       -6.252556   1.000000
    2        5.459621   0.988921
    3        5.459639   0.988874
    4        5.459639   0.988874
    5        8.011271  -0.000000
    6        8.011289  -0.000000
    7        8.011289  -0.000000
    8        8.388118   0.000000

  0.0000000E+00  0.0000000E+00  0.0000000E+00  0.2500000E-01
    1       -6.252556   1.000000
    2        5.459621   0.988921
    3        5.459639   0.988874
    4        5.459639   0.988874
    5        8.011271  -0.000000
    6        8.011289  -0.000000
    7        8.011289  -0.000000
    8        8.388118   0.000000

  0.0000000E+00  0.5555556E-01  0.5555556E-01  0.2500000E-01
    1       -6.200283   1.000000
    2        5.098934   1.000000
    3        5.256631   1.000240
    4        5.256643   1.000240
    5        7.886540  -0.000000
    6        8.279017   0.000000
    7        8.279029   0.000000
    8        8.736033   0.000000

  0.0000000E+00  0.1111111E+00  0.1111111E+00  0.2500000E-01
    1       -6.043756   1.000000
    2        4.309972   1.000000
    3        4.808616   1.000000
    4        4.808627   1.000000
    5        7.572078  -0.000000
    6        8.918134   0.000000
    7        8.918147   0.000000
    8        9.392703   0.000000

  0.0000000E+00  0.1666667E+00  0.1666667E+00  0.2500000E-01
    1       -5.784109   1.000000
    2        3.383734   1.000000
    3        4.310926   1.000000
    4        4.310937   1.000000
    5        7.181185  -0.000000
    6        9.586221   0.000000
    7        9.731251   0.000000
    8        9.731264   0.000000

  0.0000000E+00  0.2222222E+00  0.2222222E+00  0.2500000E-01
    1       -5.423294   1.000000
    2        2.417025   1.000000
    3        3.845059   1.000000
    4        3.845069   1.000000
    5        6.799144  -0.000000
    6        8.994135   0.000000
    7       10.633244   0.000000
    8       10.633257   0.000000

  0.0000000E+00  0.2777778E+00  0.2777778E+00  0.2500000E-01
    1       -4.964122   1.000000
    2        1.441580   1.000000
    3        3.444115   1.000000
    4        3.444125   1.000000
    5        6.476822  -0.000000
    6        8.217511  -0.000000
    7       11.585593   0.000000
    8       11.585609   0.000000

  0.0000000E+00  0.3333333E+00  0.3333333E+00  0.2500000E-01
    1       -4.410496   1.000000
    2        0.473710   1.000000
    3        3.122219   1.000000
    4        3.122229   1.000000
    5        6.244738  -0.000000
    6        7.513704  -0.000000
    7       12.575138   0.000000
    8       12.575154   0.000000

  0.0000000E+00  0.3888889E+00  0.3888889E+00  0.2500000E-01
    1       -3.767470   1.000000
    2       -0.473296   1.000000
    3        2.888642   1.000000
    4        2.888652   1.000000
    5        6.121629  -0.000000
    6        6.942861  -0.000000
    7       13.582657   0.000000
    8       13.582679   0.000000

  0.0000000E+00  0.4444444E+00  0.4444444E+00  0.2500000E-01
    1       -3.042632   1.000000
    2       -1.383753   1.000000
    3        2.747150   1.000000
    4        2.747160   1.000000
    5        6.119437  -0.000000
    6        6.522478  -0.000000
    7       14.583048   0.000000
    8       14.583076   0.000000

  0.0000000E+00  0.5000000E+00  0.5000000E+00  0.2500000E-01
    1       -2.244449   1.000000
    2       -2.244448   1.000000
    3        2.699419   1.000000
    4        2.699429   1.000000
    5        6.249690  -0.000000
    6        6.249711  -0.000000
    7       15.251270   0.000000
    8       15.252198   0.000000

  0.0000000E+00  0.5000000E+00  0.5000000E+00  0.2500000E-01
    1       -2.244449   1.000000
    2       -2.244448   1.000000
    3        2.699419   1.000000
    4        2.699429   1.000000
    5        6.249690  -0.000000
    6        6.249711  -0.000000
    7       15.251511   0.000000
    8       15.252075   0.000000

  0.2777778E-01  0.5138889E+00  0.5138889E+00  0.2500000E-01
    1       -2.247454   1.000000
    2       -2.237313   1.000000
    3        2.656628   1.000000
    4        2.704774   1.000000
    5        6.255706  -0.000000
    6        6.315950  -0.000000
    7       15.185862   0.000000
    8       15.212896   0.000000

  0.5555556E-01  0.5277778E+00  0.5277778E+00  0.2500000E-01
    1       -2.257083   1.000000
    2       -2.215878   1.000000
    3        2.536907   1.000000
    4        2.720785   1.000000
    5        6.273913  -0.000000
    6        6.501170  -0.000000
    7       15.007489   0.000000
    8       15.098759   0.000000

  0.8333333E-01  0.5416667E+00  0.5416667E+00  0.2500000E-01
    1       -2.274123   1.000000
    2       -2.180230   1.000000
    3        2.364745   1.000000
    4        2.746906   1.000000
    5        6.303836  -0.000000
    6        6.786232  -0.000000
    7       14.751430   0.000000
    8       14.926369   0.000000

  0.1111111E+00  0.5555556E+00  0.5555556E+00  0.2500000E-01
    1       -2.300480   1.000000
    2       -2.130343   1.000000
    3        2.165025   1.000000
    4        2.783313   1.000000
    5        6.345578  -0.000000
    6        7.146276  -0.000000
    7       14.449356   0.000000
    8       14.713654   0.000000

  0.1388889E+00  0.5694444E+00  0.5694444E+00  0.2500000E-01
    1       -2.338515   1.000000
    2       -2.066237   1.000000
    3        1.958771   1.000000
    4        2.829850   1.000000
    5        6.398970  -0.000000
    6        7.562370  -0.000000
    7       14.124095   0.000000
    8       14.473504   0.000000

  0.1666667E+00  0.5833333E+00  0.5833333E+00  0.2500000E-01
    1       -2.390972   1.000000
    2       -1.987939   1.000000
    3        1.761860   1.000000
    4        2.886314   1.000000
    5        6.463782  -0.000000
    6        8.021015  -0.000000
    7       13.788183   0.000000
    8       14.229961   0.000000

  0.1944444E+00  0.5972222E+00  0.5972222E+00  0.2500000E-01
    1       -2.460920   1.000000
    2       -1.895543   1.000000
    3        1.585525   1.000000
    4        2.952249   1.000000
    5        6.539596  -0.000000
    6        8.510520   0.000000
    7       13.447501   0.000000
    8       13.977892   0.000000

  0.2222222E+00  0.6111111E+00  0.6111111E+00  0.2500000E-01
    1       -2.550120   1.000000
    2       -1.788969   1.000000
    3        1.438971   1.000000
    4        3.027709   1.000000
    5        6.626264  -0.000000
    6        9.028513   0.000000
    7       13.109543   0.000000
    8       13.687555   0.000000

  0.2500000E+00  0.6250000E+00  0.6250000E+00  0.2500000E-01
    1       -2.660234   1.000000
    2       -1.668379   1.000000
    3        1.327164   1.000000
    4        3.112132   1.000000
    5        6.723006  -0.000000
    6        9.567526   0.000000
    7       12.774930   0.000000
    8       13.338751   0.000000

  0.3750000E+00  0.7500000E+00  0.3750000E+00  0.2500000E-01
    1       -2.660234   1.000000
    2       -1.668379   1.000000
    3        1.327164   1.000000
    4        3.112132   1.000000
    5        6.723006  -0.000000
    6        9.567526   0.000000
    7       12.774631   0.000000
    8       13.352684   0.000000

  0.3333333E+00  0.6666667E+00  0.3333333E+00  0.2500000E-01
    1       -3.109966   1.000000
    2       -1.222630   1.000000
    3        1.217790   1.000000
    4        3.414124   1.000000
    5        7.068735  -0.000000
    6       11.237233   0.000000
    7       11.813489   0.000000
    8       12.358399   0.000000

  0.2916667E+00  0.5833333E+00  0.2916667E+00  0.2500000E-01
    1       -3.680109   1.000000
    2       -0.651877   1.000000
    3        1.416734   1.000000
    4        3.775233   1.000000
    5        7.475475  -0.000000
    6       10.944359   0.000000
    7       11.304447   0.000000
    8       11.952809   0.000000

  0.2500000E+00  0.5000000E+00  0.2500000E+00  0.2500000E-01
    1       -4.280516   1.000000
    2        0.039654   1.000000
    3        1.845346   1.000000
    4        4.168898   1.000000
    5        7.889689  -0.000000
    6       10.175683   0.000000
    7       10.522117   0.000000
    8       11.413182   0.000000

  0.2083333E+00  0.4166667E+00  0.2083333E+00  0.2500000E-01
    1       -4.844685   1.000000
    2        0.848579   1.000000
    3        2.436307   1.000000
    4        4.559003   1.000000
    5        8.226344  -0.000000
    6        9.519048   0.000000
    7        9.832546   0.000000
    8       11.084972   0.000000

  0.1666667E+00  0.3333333E+00  0.1666667E+00  0.2500000E-01
    1       -5.334865   1.000000
    2        1.767172   1.000000
    3        3.137873   1.000000
    4        4.903459   1.000000
    5        8.383550   0.000000
    6        8.978866   0.000000
    7        9.249668   0.000000
    8       10.978453   0.000000

  0.1250000E+00  0.2500000E+00  0.1250000E+00  0.2500000E-01
    1       -5.730033   1.000000
    2        2.782065   1.000000
    3        3.894586   1.000000
    4        5.167626   1.000001
    5        8.361051   0.000000
    6        8.555349   0.000000
    7        8.772058   0.000000
    8       10.792267   0.000000

  0.8333333E-01  0.1666667E+00  0.8333333E-01  0.2500000E-01
    1       -6.018531   1.000000
    2        3.862116   1.000000
    3        4.631952   1.000000
    4        5.340968   1.008465
    5        8.254304  -0.000000
    6        8.259162  -0.000000
    7        8.394147   0.000000
    8        9.983815   0.000000

  0.4166667E-01  0.8333333E-01  0.4166667E-01  0.2500000E-01
    1       -6.193745   1.000000
    2        4.904819   1.000000
    3        5.221313   1.000033
    4        5.432222   1.030925
    5        8.072197  -0.000000
    6        8.121986  -0.000000
    7        8.147986  -0.000000
    8        8.892933   0.000000

  0.0000000E+00  0.0000000E+00  0.0000000E+00  0.2500000E-01
    1       -6.252556   1.000000
    2        5.459621   0.988921
    3        5.459639   0.988874
    4        5.459639   0.988874
    5        8.011271  -0.000000
    6        8.011289  -0.000000
    7        8.011289  -0.000000
    8        8.388118   0.000000
