    2    2    1    1
  0.2079688E+02  0.3889087E-09  0.3889087E-09  0.3889087E-09  0.5000000E-15
   1.0000000000000000E-004
  CAR 
 unknown system                          
      8     56      8

  0.3742002E-15  0.3742002E-15  0.3742002E-15  0.7513148E-03
    1       -6.252319   1.000000
    2        5.459948   1.000000
    3        5.459967   1.000000
    4        5.459967   1.000000
    5        8.011484   0.000000
    6        8.011503   0.000000
    7        8.011503   0.000000
    8        8.388482   0.000000

  0.9090909E-01  0.3816392E-15  0.3816392E-15  0.6010518E-02
    1       -6.147577   1.000000
    2        4.470313   1.000000
    3        5.298177   1.000000
    4        5.298194   1.000000
    5        7.959031   0.000000
    6        8.249577   0.000000
    7        8.249594   0.000000
    8        9.259475   0.000000

  0.1818182E+00  0.3885781E-15  0.3885781E-15  0.6010518E-02
    1       -5.837528   1.000000
    2        2.821658   1.000000
    3        4.965691   1.000000
    4        4.965708   1.000000
    5        7.624478   0.000000
    6        8.712470   0.000000
    7        8.712490   0.000000
    8       10.865563   0.000000

  0.2727273E+00  0.3608225E-15  0.3608225E-15  0.6010518E-02
    1       -5.338918   1.000000
    2        1.203741   1.000000
    3        4.648849   1.000000
    4        4.648867   1.000000
    5        7.277536   0.000000
    6        8.973484   0.000000
    7        8.973514   0.000000
    8       12.442101   0.000000

  0.3636364E+00  0.3608225E-15  0.3608225E-15  0.6010518E-02
    1       -4.703218   1.000000
    2       -0.210188   1.000000
    3        4.420953   1.000000
    4        4.420971   1.000000
    5        7.020022   0.000000
    6        8.936908   0.000000
    7        8.936942   0.000000
    8       13.251063   0.000000

  0.4545455E+00  0.3885781E-15  0.3885781E-15  0.6010518E-02
    1       -4.121065   1.000000
    2       -1.187910   1.000000
    3        4.304549   1.000000
    4        4.304568   1.000000
    5        6.883889   0.000000
    6        8.843759   0.000000
    7        8.843792   0.000000
    8       13.158367   0.000000

  0.9090909E-01  0.9090909E-01  0.3742002E-15  0.4507889E-02
    1       -6.112432   1.000000
    2        4.622292   1.000000
    3        4.984519   1.000000
    4        4.984531   1.000000
    5        7.701070   0.000000
    6        8.658070   0.000000
    7        8.658083   0.000000
    8        9.160748   0.000000

  0.1818182E+00  0.9090909E-01  0.3816392E-15  0.1803156E-01
    1       -5.870042   1.000000
    2        3.296590   1.000000
    3        4.599125   1.000000
    4        4.763260   1.000000
    5        7.730862   0.000000
    6        8.637536   0.000000
    7        9.235837   0.000000
    8       10.232867   0.000000

  0.2727273E+00  0.9090909E-01  0.3747003E-15  0.1803156E-01
    1       -5.431706   1.000000
    2        1.718044   1.000000
    3        4.286972   1.000000
    4        4.396016   1.000000
    5        7.811164   0.000000
    6        8.666541   0.000000
    7        9.591259   0.000000
    8       10.774506   0.000000

  0.3636364E+00  0.9090909E-01  0.3608225E-15  0.1803156E-01
    1       -4.831886   1.000000
    2        0.252753   1.000000
    3        4.022616   1.000000
    4        4.102554   1.000000
    5        7.633634   0.000000
    6        8.753239   0.000000
    7        9.545978   0.000000
    8       11.538248   0.000000

  0.4545455E+00  0.9090909E-01  0.3608225E-15  0.1803156E-01
    1       -4.190500   1.000000
    2       -0.899003   1.000000
    3        3.732371   1.000000
    4        4.059880   1.000000
    5        7.483611   0.000000
    6        8.737414   0.000000
    7        9.327590   0.000000
    8       12.744397   0.000000

 -0.4545455E+00  0.9090909E-01  0.3885781E-15  0.1803156E-01
    1       -3.934922   1.000000
    2       -1.282734   1.000000
    3        3.561360   1.000000
    4        4.156861   1.000000
    5        7.450855   0.000000
    6        8.800403   0.000000
    7        9.151106   0.000000
    8       13.442382   0.000000

 -0.3636364E+00  0.9090909E-01  0.3885781E-15  0.1803156E-01
    1       -4.394256   1.000000
    2       -0.564390   1.000000
    3        3.529819   1.000000
    4        4.376737   1.000000
    5        7.546371   0.000000
    6        8.985921   0.000000
    7        9.068311   0.000000
    8       13.101288   0.000000

 -0.2727273E+00  0.9090909E-01  0.3885781E-15  0.1803156E-01
    1       -5.047129   1.000000
    2        0.721219   1.000000
    3        3.653597   1.000000
    4        4.692078   1.000000
    5        7.759321   0.000000
    6        8.986870   0.000000
    7        9.180630   0.000000
    8       12.035287   0.000000

 -0.1818182E+00  0.9090909E-01  0.3608225E-15  0.1803156E-01
    1       -5.599384   1.000000
    2        2.228029   1.000000
    3        3.949226   1.000000
    4        5.046727   1.000000
    5        8.052302   0.000000
    6        8.694098   0.000000
    7        9.032939   0.000000
    8       11.116994   0.000000

 -0.9090909E-01  0.9090909E-01  0.3747003E-15  0.9015778E-02
    1       -5.974115   1.000000
    2        3.664095   1.000000
    3        4.504526   1.000000
    4        5.316630   1.000000
    5        8.279657   0.000000
    6        8.300693   0.000000
    7        8.456041   0.000000
    8       10.174922   0.000000

  0.1818182E+00  0.1818182E+00  0.3742002E-15  0.4507889E-02
    1       -5.695393   1.000000
    2        3.122508   1.000000
    3        4.178937   1.000000
    4        4.178949   1.000000
    5        7.073562   0.000000
    6        9.476578   0.000000
    7        9.969880   0.000000
    8        9.969894   0.000000

  0.2727273E+00  0.1818182E+00  0.3816392E-15  0.1803156E-01
    1       -5.320808   1.000000
    2        1.998524   1.000000
    3        3.764501   1.000000
    4        3.844665   1.000000
    5        7.124378   0.000000
    6        9.116669   0.000000
    7       10.257049   0.000000
    8       10.548812   0.000000

  0.3636364E+00  0.1818182E+00  0.3885781E-15  0.1803156E-01
    1       -4.769160   1.000000
    2        0.671276   1.000000
    3        3.241636   1.000000
    4        3.651266   1.000000
    5        7.357888   0.000000
    6        9.466666   0.000000
    7       10.063567   0.000000
    8       10.646859   0.000000

  0.4545455E+00  0.1818182E+00  0.3885781E-15  0.1803156E-01
    1       -4.115255   1.000000
    2       -0.523344   1.000000
    3        2.776440   1.000000
    4        3.617658   1.000000
    5        7.395565   0.000000
    6        9.805896   0.000000
    7       10.414118   0.000000
    8       10.682883   0.000000

 -0.4545455E+00  0.1818182E+00  0.3330669E-15  0.1803156E-01
    1       -3.656001   1.000000
    2       -1.202263   1.000000
    3        2.451556   1.000000
    4        3.743237   1.000000
    5        7.485519   0.000000
    6        9.690735   0.000000
    7       10.132507   0.000000
    8       12.269069   0.000000

 -0.3636364E+00  0.1818182E+00  0.3885781E-15  0.1803156E-01
    1       -3.927173   1.000000
    2       -0.808875   1.000000
    3        2.307556   1.000000
    4        4.011284   1.000000
    5        7.718431   0.000000
    6        9.692371   0.000000
    7        9.907492   0.000000
    8       13.042699   0.000000

 -0.2727273E+00  0.1818182E+00  0.3885781E-15  0.1803156E-01
    1       -4.571597   1.000000
    2        0.266126   1.000000
    3        2.395806   1.000000
    4        4.385732   1.000000
    5        8.057786   0.000000
    6        9.651255   0.000000
    7        9.756715   0.000000
    8       11.660600   0.000000

 -0.1818182E+00  0.1818182E+00  0.3608225E-15  0.9015778E-02
    1       -5.166573   1.000000
    2        1.421187   1.000000
    3        2.872994   1.000000
    4        4.786324   1.000000
    5        8.350641   0.000000
    6        9.162351   0.000000
    7        9.448133   0.000000
    8       11.000285   0.000000

  0.2727273E+00  0.2727273E+00  0.3742002E-15  0.4507889E-02
    1       -5.009578   1.000000
    2        1.530480   1.000000
    3        3.477696   1.000000
    4        3.477707   1.000000
    5        6.502860   0.000000
    6        8.286800   0.000000
    7       11.497711   0.000000
    8       11.497726   0.000000

  0.3636364E+00  0.2727273E+00  0.3816392E-15  0.1803156E-01
    1       -4.512808   1.000000
    2        0.601832   1.000000
    3        2.958284   1.000000
    4        3.251047   1.000000
    5        6.634602   0.000000
    6        8.005079   0.000000
    7       11.761299   0.000000
    8       11.968645   0.000000

  0.4545455E+00  0.2727273E+00  0.3747003E-15  0.1803156E-01
    1       -3.876526   1.000000
    2       -0.393905   1.000000
    3        2.255617   1.000000
    4        3.189988   1.000000
    5        6.838848   0.000000
    6        8.729354   0.000000
    7       11.591145   0.000000
    8       11.853868   0.000000

 -0.4545455E+00  0.2727273E+00  0.2775558E-15  0.1803156E-01
    1       -3.289096   1.000000
    2       -1.163111   1.000000
    3        1.701741   1.000000
    4        3.298380   1.000000
    5        6.970333   0.000000
    6       10.181410   0.000000
    7       11.413865   0.000000
    8       11.539810   0.000000

 -0.3636364E+00  0.2727273E+00  0.3885781E-15  0.1803156E-01
    1       -3.344845   1.000000
    2       -1.085595   1.000000
    3        1.428990   1.000000
    4        3.563552   1.000000
    5        7.246432   0.000000
    6       11.183822   0.000000
    7       11.203390   0.000000
    8       12.052975   0.000000

 -0.2727273E+00  0.2727273E+00  0.3885781E-15  0.9015778E-02
    1       -3.953948   1.000000
    2       -0.352127   1.000000
    3        1.587666   1.000000
    4        3.952280   1.000000
    5        7.665955   0.000000
    6       10.580796   0.000000
    7       10.937965   0.000000
    8       11.685176   0.000000

  0.3636364E+00  0.3636364E+00  0.3742002E-15  0.4507889E-02
    1       -4.070351   1.000000
    2       -0.045685   1.000000
    3        2.983962   1.000000
    4        2.983973   1.000000
    5        6.162631   0.000000
    6        7.185044   0.000000
    7       13.123644   0.000000
    8       13.123661   0.000000

  0.4545455E+00  0.3636364E+00  0.3747003E-15  0.1803156E-01
    1       -3.468606   1.000000
    2       -0.838406   1.000000
    3        2.472548   1.000000
    4        2.881090   1.000000
    5        6.372363   0.000000
    6        7.187285   0.000000
    7       13.428471   0.000000
    8       13.458562   0.000000

 -0.4545455E+00  0.3636364E+00  0.3330669E-15  0.1803156E-01
    1       -2.820518   1.000000
    2       -1.533188   1.000000
    3        1.728501   1.000000
    4        2.951515   1.000000
    5        6.542617   0.000000
    6        8.333553   0.000000
    7       13.185185   0.000000
    8       13.285630   0.000000

 -0.3636364E+00  0.3636364E+00  0.2775558E-15  0.9015778E-02
    1       -2.765677   1.000000
    2       -1.558952   1.000000
    3        1.263781   1.000000
    4        3.187819   1.000000
    5        6.809622   0.000000
    6       10.020766   0.000000
    7       12.506102   0.000000
    8       13.040318   0.000000

  0.4545455E+00  0.4545455E+00  0.3742002E-15  0.4507889E-02
    1       -2.902400   1.000000
    2       -1.544036   1.000000
    3        2.731752   1.000000
    4        2.731763   1.000000
    5        6.133072   0.000000
    6        6.462148   0.000000
    7       14.754676   0.000000
    8       14.754695   0.000000

 -0.4545455E+00  0.4545455E+00  0.2775558E-15  0.9015778E-02
    1       -2.280007   1.000000
    2       -2.167746   1.000000
    3        2.312263   1.000000
    4        2.756073   1.000000
    5        6.314116   0.000000
    6        6.877939   0.000000
    7       14.671144   0.000000
    8       14.871821   0.000000

  0.2727273E+00  0.1818182E+00  0.9090909E-01  0.1803156E-01
    1       -5.562021   1.000000
    2        2.440774   1.000000
    3        3.691110   1.000000
    4        4.654307   1.000000
    5        7.791827   0.000000
    6        8.941554   0.000000
    7        9.770029   0.000000
    8       10.212646   0.000000

  0.3636364E+00  0.1818182E+00  0.9090909E-01  0.3606311E-01
    1       -5.066230   1.000000
    2        1.158646   1.000000
    3        3.136671   1.000000
    4        4.345507   1.000000
    5        8.084672   0.000000
    6        8.926726   0.000000
    7       10.109004   0.000000
    8       10.332457   0.000000

  0.4545455E+00  0.1818182E+00  0.9090909E-01  0.3606311E-01
    1       -4.431864   1.000000
    2       -0.140038   1.000000
    3        2.877304   1.000000
    4        4.014838   1.000000
    5        8.092691   0.000000
    6        8.792534   0.000000
    7       10.197691   0.000000
    8       11.153374   0.000000

 -0.4545455E+00  0.1818182E+00  0.9090909E-01  0.3606311E-01
    1       -3.844636   1.000000
    2       -1.083047   1.000000
    3        2.775029   1.000000
    4        3.813029   1.000000
    5        8.048248   0.000000
    6        8.626899   0.000000
    7       10.141061   0.000000
    8       12.577922   0.000000

  0.3636364E+00  0.2727273E+00  0.9090909E-01  0.1803156E-01
    1       -4.886212   1.000000
    2        1.164737   1.000000
    3        2.996006   1.000000
    4        3.684162   1.000000
    5        7.248340   0.000000
    6        8.762452   0.000000
    7       10.358260   0.000000
    8       11.386298   0.000000

  0.4545455E+00  0.2727273E+00  0.9090909E-01  0.3606311E-01
    1       -4.289918   1.000000
    2        0.117571   1.000000
    3        2.433831   1.000000
    4        3.384141   1.000000
    5        7.605600   0.000000
    6        9.168593   0.000000
    7       10.045624   0.000000
    8       11.775531   0.000000

 -0.4545455E+00  0.2727273E+00  0.9090909E-01  0.3606311E-01
    1       -3.643670   1.000000
    2       -0.852891   1.000000
    3        2.054930   1.000000
    4        3.235502   1.000000
    5        7.737857   0.000000
    6        9.686680   0.000000
    7       10.481196   0.000000
    8       11.733072   0.000000

 -0.3636364E+00  0.2727273E+00  0.9090909E-01  0.3606311E-01
    1       -3.390650   1.000000
    2       -1.185265   1.000000
    3        1.832729   1.000000
    4        3.321307   1.000000
    5        7.940858   0.000000
    6        9.425415   0.000000
    7       11.614009   0.000000
    8       12.151446   0.000000

 -0.2727273E+00  0.2727273E+00  0.9090909E-01  0.3606311E-01
    1       -3.874260   1.000000
    2       -0.525939   1.000000
    3        1.829452   1.000000
    4        3.605241   1.000000
    5        8.283795   0.000000
    6        9.243301   0.000000
    7       10.925063   0.000000
    8       11.572403   0.000000

 -0.1818182E+00  0.2727273E+00  0.9090909E-01  0.1803156E-01
    1       -4.524542   1.000000
    2        0.423805   1.000000
    3        2.201343   1.000000
    4        4.003760   1.000000
    5        8.689737   0.000000
    6        8.829852   0.000000
    7       10.085672   0.000000
    8       11.105771   0.000000

  0.4545455E+00  0.3636364E+00  0.9090909E-01  0.1803156E-01
    1       -3.965663   1.000000
    2       -0.179269   1.000000
    3        2.534358   1.000000
    4        2.914250   1.000000
    5        6.906892   0.000000
    6        7.764275   0.000000
    7       11.708655   0.000000
    8       13.091699   0.000000

 -0.4545455E+00  0.3636364E+00  0.9090909E-01  0.3606311E-01
    1       -3.309404   1.000000
    2       -0.977999   1.000000
    3        1.918209   1.000000
    4        2.742914   1.000000
    5        7.251670   0.000000
    6        8.550570   0.000000
    7       11.368453   0.000000
    8       13.440674   0.000000

 -0.3636364E+00  0.3636364E+00  0.9090909E-01  0.3606311E-01
    1       -2.862622   1.000000
    2       -1.456712   1.000000
    3        1.417796   1.000000
    4        2.854211   1.000000
    5        7.460094   0.000000
    6       10.094359   0.000000
    7       11.065637   0.000000
    8       12.632851   0.000000

 -0.2727273E+00  0.3636364E+00  0.9090909E-01  0.1803156E-01
    1       -3.235042   1.000000
    2       -1.067332   1.000000
    3        1.317621   1.000000
    4        3.165794   1.000000
    5        7.817153   0.000000
    6       10.486254   0.000000
    7       11.187950   0.000000
    8       12.075524   0.000000

 -0.4545455E+00  0.4545455E+00  0.9090909E-01  0.1803156E-01
    1       -2.833281   1.000000
    2       -1.543893   1.000000
    3        2.349477   1.000000
    4        2.468323   1.000000
    5        6.847828   0.000000
    6        7.120770   0.000000
    7       13.211407   0.000000
    8       14.544532   0.000000

 -0.3636364E+00  0.4545455E+00  0.9090909E-01  0.1803156E-01
    1       -2.350849   1.000000
    2       -1.975423   1.000000
    3        1.721029   1.000000
    4        2.537807   1.000000
    5        7.124601   0.000000
    6        8.343901   0.000000
    7       12.770361   0.000000
    8       12.994659   0.000000

 -0.4545455E+00  0.3636364E+00  0.1818182E+00  0.1803156E-01
    1       -3.668345   1.000000
    2       -0.559003   1.000000
    3        1.807610   1.000000
    4        2.940262   1.000000
    5        8.522706   0.000000
    6        9.193246   0.000000
    7        9.667682   0.000000
    8       12.996274   0.000000

 -0.3636364E+00  0.3636364E+00  0.1818182E+00  0.3606311E-01
    1       -3.058900   1.000000
    2       -1.237429   1.000000
    3        1.536094   1.000000
    4        2.633081   1.000000
    5        8.905643   0.000000
    6        9.228097   0.000000
    7       10.473484   0.000000
    8       12.298034   0.000000

 -0.3636364E+00  0.4545455E+00  0.1818182E+00  0.1803156E-01
    1       -2.658273   1.000000
    2       -1.589634   1.000000
    3        1.762971   1.000000
    4        2.134172   1.000000
    5        8.450024   0.000000
    6        8.663451   0.000000
    7       10.967826   0.000000
    8       12.529744   0.000000

 -0.2727273E+00  0.4545455E+00  0.1818182E+00  0.1803156E-01
    1       -2.468852   1.000000
    2       -1.748366   1.000000
    3        1.496805   1.000000
    4        2.168552   1.000000
    5        8.796687   0.000000
    6       10.079444   0.000000
    7       10.719421   0.000000
    8       10.749613   0.000000
